<?xml version="1.0" encoding="UTF-8"?>

<!-- generated on 2023-12-10 11:09:49 by Eclipse SUMO sumo Version 1.10.0
<configuration xmlns:xsi="http://www.w3.org/2001/XMLSchema-instance" xsi:noNamespaceSchemaLocation="http://sumo.dlr.de/xsd/sumoConfiguration.xsd">

    <input>
        <net-file value="./res/3_3acttl.net.xml"/>
        <route-files value="./res/3_3xcp6_9.rou.xml"/>
    </input>

    <output>
        <tripinfo-output value="./tripinfos.xml"/>
    </output>

    <time>
        <begin value="0"/>
        <end value="20000"/>
    </time>

    <processing>
        <ignore-junction-blocker value="1"/>
        <time-to-teleport value="-1"/>
    </processing>

    <report>
        <verbose value="true"/>
        <duration-log.statistics value="true"/>
        <no-step-log value="true"/>
    </report>

    <traci_server>
        <remote-port value="48903"/>
    </traci_server>

    <random_number>
        <seed value="25"/>
    </random_number>

</configuration>
-->

<detector xmlns:xsi="http://www.w3.org/2001/XMLSchema-instance" xsi:noNamespaceSchemaLocation="http://sumo.dlr.de/xsd/det_e1_file.xsd">
    <interval begin="0.00" end="300.00" id="TLSnode1_1_InductLoopOn_2_1_0" nVehContrib="3" flow="36.00" occupancy="0.40" speed="12.65" harmonicMeanSpeed="12.64" length="5.00" nVehEntered="3"/>
    <interval begin="0.00" end="300.00" id="TLSnode1_1_InductLoopOn_2_1_1" nVehContrib="0" flow="0.00" occupancy="0.00" speed="-1.00" harmonicMeanSpeed="-1.00" length="-1.00" nVehEntered="0"/>
    <interval begin="0.00" end="300.00" id="TLSnode1_1_InductLoopOn_2_1_2" nVehContrib="1" flow="12.00" occupancy="0.13" speed="12.67" harmonicMeanSpeed="12.67" length="5.00" nVehEntered="1"/>
    <interval begin="0.00" end="300.00" id="TLSnode1_1_InductLoopOn_4_1_0" nVehContrib="2" flow="24.00" occupancy="0.29" speed="11.96" harmonicMeanSpeed="11.59" length="5.00" nVehEntered="2"/>
    <interval begin="0.00" end="300.00" id="TLSnode1_1_InductLoopOn_4_1_1" nVehContrib="1" flow="12.00" occupancy="0.13" speed="13.08" harmonicMeanSpeed="13.08" length="5.00" nVehEntered="1"/>
    <interval begin="0.00" end="300.00" id="TLSnode1_1_InductLoopOn_4_1_2" nVehContrib="5" flow="60.00" occupancy="0.75" speed="11.71" harmonicMeanSpeed="11.18" length="5.00" nVehEntered="5"/>
    <interval begin="0.00" end="300.00" id="TLSnode1_1_InductLoopOn_W1_1_0" nVehContrib="2" flow="24.00" occupancy="0.25" speed="13.41" harmonicMeanSpeed="13.40" length="5.00" nVehEntered="2"/>
    <interval begin="0.00" end="300.00" id="TLSnode1_1_InductLoopOn_W1_1_1" nVehContrib="0" flow="0.00" occupancy="0.00" speed="-1.00" harmonicMeanSpeed="-1.00" length="-1.00" nVehEntered="0"/>
    <interval begin="0.00" end="300.00" id="TLSnode1_1_InductLoopOn_W1_1_2" nVehContrib="0" flow="0.00" occupancy="0.00" speed="-1.00" harmonicMeanSpeed="-1.00" length="-1.00" nVehEntered="0"/>
    <interval begin="0.00" end="300.00" id="TLSnode1_1_InductLoopOn_N1_1_0" nVehContrib="0" flow="0.00" occupancy="0.00" speed="-1.00" harmonicMeanSpeed="-1.00" length="-1.00" nVehEntered="0"/>
    <interval begin="0.00" end="300.00" id="TLSnode1_1_InductLoopOn_N1_1_1" nVehContrib="0" flow="0.00" occupancy="0.00" speed="-1.00" harmonicMeanSpeed="-1.00" length="-1.00" nVehEntered="0"/>
    <interval begin="0.00" end="300.00" id="TLSnode1_1_InductLoopOn_N1_1_2" nVehContrib="2" flow="24.00" occupancy="0.23" speed="14.39" harmonicMeanSpeed="14.39" length="5.00" nVehEntered="2"/>
    <interval begin="0.00" end="300.00" id="TLSnode2_1_InductLoopOn_N2_2_0" nVehContrib="1" flow="12.00" occupancy="0.13" speed="12.37" harmonicMeanSpeed="12.37" length="5.00" nVehEntered="1"/>
    <interval begin="0.00" end="300.00" id="TLSnode2_1_InductLoopOn_N2_2_1" nVehContrib="3" flow="36.00" occupancy="0.41" speed="12.21" harmonicMeanSpeed="12.13" length="5.00" nVehEntered="3"/>
    <interval begin="0.00" end="300.00" id="TLSnode2_1_InductLoopOn_N2_2_2" nVehContrib="1" flow="12.00" occupancy="0.14" speed="12.31" harmonicMeanSpeed="12.31" length="5.00" nVehEntered="1"/>
    <interval begin="0.00" end="300.00" id="TLSnode2_1_InductLoopOn_3_2_0" nVehContrib="0" flow="0.00" occupancy="0.00" speed="-1.00" harmonicMeanSpeed="-1.00" length="-1.00" nVehEntered="0"/>
    <interval begin="0.00" end="300.00" id="TLSnode2_1_InductLoopOn_3_2_1" nVehContrib="2" flow="24.00" occupancy="0.26" speed="12.80" harmonicMeanSpeed="12.80" length="5.00" nVehEntered="2"/>
    <interval begin="0.00" end="300.00" id="TLSnode2_1_InductLoopOn_3_2_2" nVehContrib="6" flow="72.00" occupancy="0.84" speed="12.31" harmonicMeanSpeed="11.94" length="5.00" nVehEntered="6"/>
    <interval begin="0.00" end="300.00" id="TLSnode2_1_InductLoopOn_5_2_0" nVehContrib="8" flow="96.00" occupancy="1.08" speed="13.74" harmonicMeanSpeed="13.41" length="5.00" nVehEntered="9"/>
    <interval begin="0.00" end="300.00" id="TLSnode2_1_InductLoopOn_5_2_1" nVehContrib="1" flow="12.00" occupancy="0.14" speed="11.98" harmonicMeanSpeed="11.98" length="5.00" nVehEntered="1"/>
    <interval begin="0.00" end="300.00" id="TLSnode2_1_InductLoopOn_5_2_2" nVehContrib="3" flow="36.00" occupancy="0.42" speed="12.47" harmonicMeanSpeed="12.02" length="5.00" nVehEntered="3"/>
    <interval begin="0.00" end="300.00" id="TLSnode2_1_InductLoopOn_1_2_0" nVehContrib="3" flow="36.00" occupancy="0.36" speed="13.92" harmonicMeanSpeed="13.85" length="5.00" nVehEntered="3"/>
    <interval begin="0.00" end="300.00" id="TLSnode2_1_InductLoopOn_1_2_1" nVehContrib="2" flow="24.00" occupancy="0.25" speed="13.57" harmonicMeanSpeed="13.46" length="5.00" nVehEntered="2"/>
    <interval begin="0.00" end="300.00" id="TLSnode2_1_InductLoopOn_1_2_2" nVehContrib="0" flow="0.00" occupancy="0.00" speed="-1.00" harmonicMeanSpeed="-1.00" length="-1.00" nVehEntered="0"/>
    <interval begin="0.00" end="300.00" id="TLSnode3_1_InductLoopOn_E1_3_0" nVehContrib="0" flow="0.00" occupancy="0.00" speed="-1.00" harmonicMeanSpeed="-1.00" length="-1.00" nVehEntered="0"/>
    <interval begin="0.00" end="300.00" id="TLSnode3_1_InductLoopOn_E1_3_1" nVehContrib="0" flow="0.00" occupancy="0.00" speed="-1.00" harmonicMeanSpeed="-1.00" length="-1.00" nVehEntered="0"/>
    <interval begin="0.00" end="300.00" id="TLSnode3_1_InductLoopOn_E1_3_2" nVehContrib="1" flow="12.00" occupancy="0.15" speed="11.07" harmonicMeanSpeed="11.07" length="5.00" nVehEntered="1"/>
    <interval begin="0.00" end="300.00" id="TLSnode3_1_InductLoopOn_6_3_0" nVehContrib="0" flow="0.00" occupancy="0.00" speed="-1.00" harmonicMeanSpeed="-1.00" length="-1.00" nVehEntered="0"/>
    <interval begin="0.00" end="300.00" id="TLSnode3_1_InductLoopOn_6_3_1" nVehContrib="2" flow="24.00" occupancy="0.25" speed="13.57" harmonicMeanSpeed="13.55" length="5.00" nVehEntered="2"/>
    <interval begin="0.00" end="300.00" id="TLSnode3_1_InductLoopOn_6_3_2" nVehContrib="5" flow="60.00" occupancy="0.70" speed="11.98" harmonicMeanSpeed="11.86" length="5.00" nVehEntered="5"/>
    <interval begin="0.00" end="300.00" id="TLSnode3_1_InductLoopOn_2_3_0" nVehContrib="8" flow="96.00" occupancy="1.11" speed="12.40" harmonicMeanSpeed="12.06" length="5.00" nVehEntered="8"/>
    <interval begin="0.00" end="300.00" id="TLSnode3_1_InductLoopOn_2_3_1" nVehContrib="1" flow="12.00" occupancy="0.16" speed="10.54" harmonicMeanSpeed="10.54" length="5.00" nVehEntered="1"/>
    <interval begin="0.00" end="300.00" id="TLSnode3_1_InductLoopOn_2_3_2" nVehContrib="5" flow="60.00" occupancy="0.66" speed="12.61" harmonicMeanSpeed="12.56" length="5.00" nVehEntered="5"/>
    <interval begin="0.00" end="300.00" id="TLSnode3_1_InductLoopOn_N3_3_0" nVehContrib="0" flow="0.00" occupancy="0.00" speed="-1.00" harmonicMeanSpeed="-1.00" length="-1.00" nVehEntered="0"/>
    <interval begin="0.00" end="300.00" id="TLSnode3_1_InductLoopOn_N3_3_1" nVehContrib="1" flow="12.00" occupancy="0.12" speed="14.23" harmonicMeanSpeed="14.23" length="5.00" nVehEntered="1"/>
    <interval begin="0.00" end="300.00" id="TLSnode3_1_InductLoopOn_N3_3_2" nVehContrib="0" flow="0.00" occupancy="0.00" speed="-1.00" harmonicMeanSpeed="-1.00" length="-1.00" nVehEntered="0"/>
    <interval begin="0.00" end="300.00" id="TLSnode4_1_InductLoopOn_5_4_0" nVehContrib="5" flow="60.00" occupancy="0.59" speed="14.10" harmonicMeanSpeed="14.01" length="5.00" nVehEntered="5"/>
    <interval begin="0.00" end="300.00" id="TLSnode4_1_InductLoopOn_5_4_1" nVehContrib="1" flow="12.00" occupancy="0.12" speed="13.54" harmonicMeanSpeed="13.54" length="5.00" nVehEntered="1"/>
    <interval begin="0.00" end="300.00" id="TLSnode4_1_InductLoopOn_5_4_2" nVehContrib="3" flow="36.00" occupancy="0.35" speed="14.26" harmonicMeanSpeed="14.12" length="5.00" nVehEntered="3"/>
    <interval begin="0.00" end="300.00" id="TLSnode4_1_InductLoopOn_7_4_0" nVehContrib="5" flow="60.00" occupancy="0.64" speed="13.11" harmonicMeanSpeed="13.06" length="5.00" nVehEntered="5"/>
    <interval begin="0.00" end="300.00" id="TLSnode4_1_InductLoopOn_7_4_1" nVehContrib="3" flow="36.00" occupancy="0.45" speed="11.41" harmonicMeanSpeed="11.10" length="5.00" nVehEntered="3"/>
    <interval begin="0.00" end="300.00" id="TLSnode4_1_InductLoopOn_7_4_2" nVehContrib="4" flow="48.00" occupancy="0.55" speed="12.27" harmonicMeanSpeed="12.19" length="5.00" nVehEntered="4"/>
    <interval begin="0.00" end="300.00" id="TLSnode4_1_InductLoopOn_W2_4_0" nVehContrib="1" flow="12.00" occupancy="0.11" speed="15.00" harmonicMeanSpeed="15.00" length="5.00" nVehEntered="1"/>
    <interval begin="0.00" end="300.00" id="TLSnode4_1_InductLoopOn_W2_4_1" nVehContrib="1" flow="12.00" occupancy="0.13" speed="12.42" harmonicMeanSpeed="12.42" length="5.00" nVehEntered="1"/>
    <interval begin="0.00" end="300.00" id="TLSnode4_1_InductLoopOn_W2_4_2" nVehContrib="0" flow="0.00" occupancy="0.00" speed="-1.00" harmonicMeanSpeed="-1.00" length="-1.00" nVehEntered="0"/>
    <interval begin="0.00" end="300.00" id="TLSnode4_1_InductLoopOn_1_4_0" nVehContrib="1" flow="12.00" occupancy="0.12" speed="13.45" harmonicMeanSpeed="13.45" length="5.00" nVehEntered="1"/>
    <interval begin="0.00" end="300.00" id="TLSnode4_1_InductLoopOn_1_4_1" nVehContrib="5" flow="60.00" occupancy="0.69" speed="12.28" harmonicMeanSpeed="12.13" length="5.00" nVehEntered="5"/>
    <interval begin="0.00" end="300.00" id="TLSnode4_1_InductLoopOn_1_4_2" nVehContrib="2" flow="24.00" occupancy="0.27" speed="12.21" harmonicMeanSpeed="12.21" length="5.00" nVehEntered="2"/>
    <interval begin="0.00" end="300.00" id="TLSnode5_1_InductLoopOn_2_5_0" nVehContrib="6" flow="72.00" occupancy="0.73" speed="14.07" harmonicMeanSpeed="13.72" length="5.00" nVehEntered="6"/>
    <interval begin="0.00" end="300.00" id="TLSnode5_1_InductLoopOn_2_5_1" nVehContrib="5" flow="60.00" occupancy="0.71" speed="11.95" harmonicMeanSpeed="11.69" length="5.00" nVehEntered="5"/>
    <interval begin="0.00" end="300.00" id="TLSnode5_1_InductLoopOn_2_5_2" nVehContrib="4" flow="48.00" occupancy="0.52" speed="13.01" harmonicMeanSpeed="12.80" length="5.00" nVehEntered="4"/>
    <interval begin="0.00" end="300.00" id="TLSnode5_1_InductLoopOn_6_5_0" nVehContrib="3" flow="36.00" occupancy="0.39" speed="12.86" harmonicMeanSpeed="12.86" length="5.00" nVehEntered="3"/>
    <interval begin="0.00" end="300.00" id="TLSnode5_1_InductLoopOn_6_5_1" nVehContrib="3" flow="36.00" occupancy="0.39" speed="12.91" harmonicMeanSpeed="12.87" length="5.00" nVehEntered="3"/>
    <interval begin="0.00" end="300.00" id="TLSnode5_1_InductLoopOn_6_5_2" nVehContrib="0" flow="0.00" occupancy="0.00" speed="-1.00" harmonicMeanSpeed="-1.00" length="-1.00" nVehEntered="0"/>
    <interval begin="0.00" end="300.00" id="TLSnode5_1_InductLoopOn_8_5_0" nVehContrib="4" flow="48.00" occupancy="0.51" speed="13.25" harmonicMeanSpeed="13.24" length="5.00" nVehEntered="5"/>
    <interval begin="0.00" end="300.00" id="TLSnode5_1_InductLoopOn_8_5_1" nVehContrib="4" flow="48.00" occupancy="0.51" speed="13.02" harmonicMeanSpeed="12.96" length="5.00" nVehEntered="4"/>
    <interval begin="0.00" end="300.00" id="TLSnode5_1_InductLoopOn_8_5_2" nVehContrib="3" flow="36.00" occupancy="0.38" speed="13.08" harmonicMeanSpeed="13.04" length="5.00" nVehEntered="3"/>
    <interval begin="0.00" end="300.00" id="TLSnode5_1_InductLoopOn_4_5_0" nVehContrib="4" flow="48.00" occupancy="0.53" speed="12.59" harmonicMeanSpeed="12.56" length="5.00" nVehEntered="4"/>
    <interval begin="0.00" end="300.00" id="TLSnode5_1_InductLoopOn_4_5_1" nVehContrib="3" flow="36.00" occupancy="0.36" speed="13.81" harmonicMeanSpeed="13.80" length="5.00" nVehEntered="3"/>
    <interval begin="0.00" end="300.00" id="TLSnode5_1_InductLoopOn_4_5_2" nVehContrib="4" flow="48.00" occupancy="0.47" speed="14.20" harmonicMeanSpeed="14.16" length="5.00" nVehEntered="4"/>
    <interval begin="0.00" end="300.00" id="TLSnode6_1_InductLoopOn_E2_6_0" nVehContrib="1" flow="12.00" occupancy="0.12" speed="13.49" harmonicMeanSpeed="13.49" length="5.00" nVehEntered="1"/>
    <interval begin="0.00" end="300.00" id="TLSnode6_1_InductLoopOn_E2_6_1" nVehContrib="0" flow="0.00" occupancy="0.00" speed="-1.00" harmonicMeanSpeed="-1.00" length="-1.00" nVehEntered="0"/>
    <interval begin="0.00" end="300.00" id="TLSnode6_1_InductLoopOn_E2_6_2" nVehContrib="0" flow="0.00" occupancy="0.00" speed="-1.00" harmonicMeanSpeed="-1.00" length="-1.00" nVehEntered="0"/>
    <interval begin="0.00" end="300.00" id="TLSnode6_1_InductLoopOn_9_6_0" nVehContrib="0" flow="0.00" occupancy="0.00" speed="-1.00" harmonicMeanSpeed="-1.00" length="-1.00" nVehEntered="0"/>
    <interval begin="0.00" end="300.00" id="TLSnode6_1_InductLoopOn_9_6_1" nVehContrib="2" flow="24.00" occupancy="0.26" speed="12.85" harmonicMeanSpeed="12.84" length="5.00" nVehEntered="2"/>
    <interval begin="0.00" end="300.00" id="TLSnode6_1_InductLoopOn_9_6_2" nVehContrib="1" flow="12.00" occupancy="0.11" speed="14.54" harmonicMeanSpeed="14.54" length="5.00" nVehEntered="1"/>
    <interval begin="0.00" end="300.00" id="TLSnode6_1_InductLoopOn_5_6_0" nVehContrib="5" flow="60.00" occupancy="0.59" speed="14.20" harmonicMeanSpeed="14.14" length="5.00" nVehEntered="5"/>
    <interval begin="0.00" end="300.00" id="TLSnode6_1_InductLoopOn_5_6_1" nVehContrib="3" flow="36.00" occupancy="0.40" speed="12.59" harmonicMeanSpeed="12.57" length="5.00" nVehEntered="3"/>
    <interval begin="0.00" end="300.00" id="TLSnode6_1_InductLoopOn_5_6_2" nVehContrib="5" flow="60.00" occupancy="0.75" speed="11.60" harmonicMeanSpeed="11.04" length="5.00" nVehEntered="5"/>
    <interval begin="0.00" end="300.00" id="TLSnode6_1_InductLoopOn_3_6_0" nVehContrib="3" flow="36.00" occupancy="0.38" speed="13.01" harmonicMeanSpeed="13.00" length="5.00" nVehEntered="3"/>
    <interval begin="0.00" end="300.00" id="TLSnode6_1_InductLoopOn_3_6_1" nVehContrib="2" flow="24.00" occupancy="0.25" speed="13.82" harmonicMeanSpeed="13.60" length="5.00" nVehEntered="2"/>
    <interval begin="0.00" end="300.00" id="TLSnode6_1_InductLoopOn_3_6_2" nVehContrib="2" flow="24.00" occupancy="0.27" speed="12.57" harmonicMeanSpeed="12.35" length="5.00" nVehEntered="2"/>
    <interval begin="0.00" end="300.00" id="TLSnode7_1_InductLoopOn_8_7_0" nVehContrib="4" flow="48.00" occupancy="0.49" speed="13.67" harmonicMeanSpeed="13.61" length="5.00" nVehEntered="4"/>
    <interval begin="0.00" end="300.00" id="TLSnode7_1_InductLoopOn_8_7_1" nVehContrib="2" flow="24.00" occupancy="0.27" speed="12.46" harmonicMeanSpeed="12.41" length="5.00" nVehEntered="2"/>
    <interval begin="0.00" end="300.00" id="TLSnode7_1_InductLoopOn_8_7_2" nVehContrib="3" flow="36.00" occupancy="0.48" speed="10.56" harmonicMeanSpeed="10.38" length="5.00" nVehEntered="3"/>
    <interval begin="0.00" end="300.00" id="TLSnode7_1_InductLoopOn_S1_7_0" nVehContrib="2" flow="24.00" occupancy="0.26" speed="13.06" harmonicMeanSpeed="13.03" length="5.00" nVehEntered="2"/>
    <interval begin="0.00" end="300.00" id="TLSnode7_1_InductLoopOn_S1_7_1" nVehContrib="0" flow="0.00" occupancy="0.00" speed="-1.00" harmonicMeanSpeed="-1.00" length="-1.00" nVehEntered="0"/>
    <interval begin="0.00" end="300.00" id="TLSnode7_1_InductLoopOn_S1_7_2" nVehContrib="0" flow="0.00" occupancy="0.00" speed="-1.00" harmonicMeanSpeed="-1.00" length="-1.00" nVehEntered="0"/>
    <interval begin="0.00" end="300.00" id="TLSnode7_1_InductLoopOn_W3_7_0" nVehContrib="0" flow="0.00" occupancy="0.00" speed="-1.00" harmonicMeanSpeed="-1.00" length="-1.00" nVehEntered="0"/>
    <interval begin="0.00" end="300.00" id="TLSnode7_1_InductLoopOn_W3_7_1" nVehContrib="2" flow="24.00" occupancy="0.27" speed="12.22" harmonicMeanSpeed="12.18" length="5.00" nVehEntered="2"/>
    <interval begin="0.00" end="300.00" id="TLSnode7_1_InductLoopOn_W3_7_2" nVehContrib="3" flow="36.00" occupancy="0.36" speed="14.20" harmonicMeanSpeed="14.08" length="5.00" nVehEntered="3"/>
    <interval begin="0.00" end="300.00" id="TLSnode7_1_InductLoopOn_4_7_0" nVehContrib="2" flow="24.00" occupancy="0.24" speed="14.00" harmonicMeanSpeed="13.93" length="5.00" nVehEntered="2"/>
    <interval begin="0.00" end="300.00" id="TLSnode7_1_InductLoopOn_4_7_1" nVehContrib="0" flow="0.00" occupancy="0.00" speed="-1.00" harmonicMeanSpeed="-1.00" length="-1.00" nVehEntered="0"/>
    <interval begin="0.00" end="300.00" id="TLSnode7_1_InductLoopOn_4_7_2" nVehContrib="9" flow="108.00" occupancy="1.33" speed="11.49" harmonicMeanSpeed="11.31" length="5.00" nVehEntered="9"/>
    <interval begin="0.00" end="300.00" id="TLSnode8_1_InductLoopOn_5_8_0" nVehContrib="5" flow="60.00" occupancy="0.63" speed="13.28" harmonicMeanSpeed="13.17" length="5.00" nVehEntered="5"/>
    <interval begin="0.00" end="300.00" id="TLSnode8_1_InductLoopOn_5_8_1" nVehContrib="0" flow="0.00" occupancy="0.00" speed="-1.00" harmonicMeanSpeed="-1.00" length="-1.00" nVehEntered="0"/>
    <interval begin="0.00" end="300.00" id="TLSnode8_1_InductLoopOn_5_8_2" nVehContrib="2" flow="24.00" occupancy="0.24" speed="14.20" harmonicMeanSpeed="14.09" length="5.00" nVehEntered="2"/>
    <interval begin="0.00" end="300.00" id="TLSnode8_1_InductLoopOn_9_8_0" nVehContrib="5" flow="60.00" occupancy="0.63" speed="13.21" harmonicMeanSpeed="13.13" length="5.00" nVehEntered="5"/>
    <interval begin="0.00" end="300.00" id="TLSnode8_1_InductLoopOn_9_8_1" nVehContrib="3" flow="36.00" occupancy="0.39" speed="12.94" harmonicMeanSpeed="12.90" length="5.00" nVehEntered="3"/>
    <interval begin="0.00" end="300.00" id="TLSnode8_1_InductLoopOn_9_8_2" nVehContrib="0" flow="0.00" occupancy="0.00" speed="-1.00" harmonicMeanSpeed="-1.00" length="-1.00" nVehEntered="0"/>
    <interval begin="0.00" end="300.00" id="TLSnode8_1_InductLoopOn_S2_8_0" nVehContrib="2" flow="24.00" occupancy="0.28" speed="12.03" harmonicMeanSpeed="12.03" length="5.00" nVehEntered="2"/>
    <interval begin="0.00" end="300.00" id="TLSnode8_1_InductLoopOn_S2_8_1" nVehContrib="2" flow="24.00" occupancy="0.26" speed="12.60" harmonicMeanSpeed="12.60" length="5.00" nVehEntered="2"/>
    <interval begin="0.00" end="300.00" id="TLSnode8_1_InductLoopOn_S2_8_2" nVehContrib="2" flow="24.00" occupancy="0.28" speed="12.01" harmonicMeanSpeed="12.00" length="5.00" nVehEntered="2"/>
    <interval begin="0.00" end="300.00" id="TLSnode8_1_InductLoopOn_7_8_0" nVehContrib="2" flow="24.00" occupancy="0.29" speed="12.60" harmonicMeanSpeed="11.53" length="5.00" nVehEntered="2"/>
    <interval begin="0.00" end="300.00" id="TLSnode8_1_InductLoopOn_7_8_1" nVehContrib="1" flow="12.00" occupancy="0.12" speed="14.47" harmonicMeanSpeed="14.47" length="5.00" nVehEntered="1"/>
    <interval begin="0.00" end="300.00" id="TLSnode8_1_InductLoopOn_7_8_2" nVehContrib="6" flow="72.00" occupancy="0.84" speed="11.94" harmonicMeanSpeed="11.85" length="5.00" nVehEntered="6"/>
    <interval begin="0.00" end="300.00" id="TLSnode9_1_InductLoopOn_E3_9_0" nVehContrib="0" flow="0.00" occupancy="0.00" speed="-1.00" harmonicMeanSpeed="-1.00" length="-1.00" nVehEntered="0"/>
    <interval begin="0.00" end="300.00" id="TLSnode9_1_InductLoopOn_E3_9_1" nVehContrib="1" flow="12.00" occupancy="0.14" speed="12.17" harmonicMeanSpeed="12.17" length="5.00" nVehEntered="1"/>
    <interval begin="0.00" end="300.00" id="TLSnode9_1_InductLoopOn_E3_9_2" nVehContrib="0" flow="0.00" occupancy="0.00" speed="-1.00" harmonicMeanSpeed="-1.00" length="-1.00" nVehEntered="0"/>
    <interval begin="0.00" end="300.00" id="TLSnode9_1_InductLoopOn_S3_9_0" nVehContrib="0" flow="0.00" occupancy="0.00" speed="-1.00" harmonicMeanSpeed="-1.00" length="-1.00" nVehEntered="0"/>
    <interval begin="0.00" end="300.00" id="TLSnode9_1_InductLoopOn_S3_9_1" nVehContrib="1" flow="12.00" occupancy="0.13" speed="12.96" harmonicMeanSpeed="12.96" length="5.00" nVehEntered="1"/>
    <interval begin="0.00" end="300.00" id="TLSnode9_1_InductLoopOn_S3_9_2" nVehContrib="0" flow="0.00" occupancy="0.00" speed="-1.00" harmonicMeanSpeed="-1.00" length="-1.00" nVehEntered="0"/>
    <interval begin="0.00" end="300.00" id="TLSnode9_1_InductLoopOn_8_9_0" nVehContrib="1" flow="12.00" occupancy="0.13" speed="12.46" harmonicMeanSpeed="12.46" length="5.00" nVehEntered="1"/>
    <interval begin="0.00" end="300.00" id="TLSnode9_1_InductLoopOn_8_9_1" nVehContrib="2" flow="24.00" occupancy="0.27" speed="12.53" harmonicMeanSpeed="12.53" length="5.00" nVehEntered="2"/>
    <interval begin="0.00" end="300.00" id="TLSnode9_1_InductLoopOn_8_9_2" nVehContrib="2" flow="24.00" occupancy="0.25" speed="13.33" harmonicMeanSpeed="13.29" length="5.00" nVehEntered="2"/>
    <interval begin="0.00" end="300.00" id="TLSnode9_1_InductLoopOn_6_9_0" nVehContrib="5" flow="60.00" occupancy="0.64" speed="13.21" harmonicMeanSpeed="13.08" length="5.00" nVehEntered="5"/>
    <interval begin="0.00" end="300.00" id="TLSnode9_1_InductLoopOn_6_9_1" nVehContrib="0" flow="0.00" occupancy="0.00" speed="-1.00" harmonicMeanSpeed="-1.00" length="-1.00" nVehEntered="0"/>
    <interval begin="0.00" end="300.00" id="TLSnode9_1_InductLoopOn_6_9_2" nVehContrib="0" flow="0.00" occupancy="0.00" speed="-1.00" harmonicMeanSpeed="-1.00" length="-1.00" nVehEntered="0"/>
    <interval begin="300.00" end="600.00" id="TLSnode1_1_InductLoopOn_2_1_0" nVehContrib="1" flow="12.00" occupancy="0.16" speed="10.33" harmonicMeanSpeed="10.33" length="5.00" nVehEntered="1"/>
    <interval begin="300.00" end="600.00" id="TLSnode1_1_InductLoopOn_2_1_1" nVehContrib="1" flow="12.00" occupancy="0.14" speed="12.29" harmonicMeanSpeed="12.29" length="5.00" nVehEntered="1"/>
    <interval begin="300.00" end="600.00" id="TLSnode1_1_InductLoopOn_2_1_2" nVehContrib="1" flow="12.00" occupancy="0.13" speed="12.75" harmonicMeanSpeed="12.75" length="5.00" nVehEntered="1"/>
    <interval begin="300.00" end="600.00" id="TLSnode1_1_InductLoopOn_4_1_0" nVehContrib="3" flow="36.00" occupancy="0.37" speed="13.78" harmonicMeanSpeed="13.70" length="5.00" nVehEntered="3"/>
    <interval begin="300.00" end="600.00" id="TLSnode1_1_InductLoopOn_4_1_1" nVehContrib="3" flow="36.00" occupancy="0.42" speed="12.07" harmonicMeanSpeed="11.92" length="5.00" nVehEntered="3"/>
    <interval begin="300.00" end="600.00" id="TLSnode1_1_InductLoopOn_4_1_2" nVehContrib="1" flow="12.00" occupancy="0.14" speed="11.74" harmonicMeanSpeed="11.74" length="5.00" nVehEntered="1"/>
    <interval begin="300.00" end="600.00" id="TLSnode1_1_InductLoopOn_W1_1_0" nVehContrib="0" flow="0.00" occupancy="0.00" speed="-1.00" harmonicMeanSpeed="-1.00" length="-1.00" nVehEntered="0"/>
    <interval begin="300.00" end="600.00" id="TLSnode1_1_InductLoopOn_W1_1_1" nVehContrib="0" flow="0.00" occupancy="0.00" speed="-1.00" harmonicMeanSpeed="-1.00" length="-1.00" nVehEntered="0"/>
    <interval begin="300.00" end="600.00" id="TLSnode1_1_InductLoopOn_W1_1_2" nVehContrib="0" flow="0.00" occupancy="0.00" speed="-1.00" harmonicMeanSpeed="-1.00" length="-1.00" nVehEntered="0"/>
    <interval begin="300.00" end="600.00" id="TLSnode1_1_InductLoopOn_N1_1_0" nVehContrib="0" flow="0.00" occupancy="0.00" speed="-1.00" harmonicMeanSpeed="-1.00" length="-1.00" nVehEntered="0"/>
    <interval begin="300.00" end="600.00" id="TLSnode1_1_InductLoopOn_N1_1_1" nVehContrib="0" flow="0.00" occupancy="0.00" speed="-1.00" harmonicMeanSpeed="-1.00" length="-1.00" nVehEntered="0"/>
    <interval begin="300.00" end="600.00" id="TLSnode1_1_InductLoopOn_N1_1_2" nVehContrib="0" flow="0.00" occupancy="0.00" speed="-1.00" harmonicMeanSpeed="-1.00" length="-1.00" nVehEntered="0"/>
    <interval begin="300.00" end="600.00" id="TLSnode2_1_InductLoopOn_N2_2_0" nVehContrib="0" flow="0.00" occupancy="0.00" speed="-1.00" harmonicMeanSpeed="-1.00" length="-1.00" nVehEntered="0"/>
    <interval begin="300.00" end="600.00" id="TLSnode2_1_InductLoopOn_N2_2_1" nVehContrib="4" flow="48.00" occupancy="0.52" speed="12.98" harmonicMeanSpeed="12.75" length="5.00" nVehEntered="4"/>
    <interval begin="300.00" end="600.00" id="TLSnode2_1_InductLoopOn_N2_2_2" nVehContrib="4" flow="48.00" occupancy="0.63" speed="10.87" harmonicMeanSpeed="10.53" length="5.00" nVehEntered="4"/>
    <interval begin="300.00" end="600.00" id="TLSnode2_1_InductLoopOn_3_2_0" nVehContrib="1" flow="12.00" occupancy="0.13" speed="12.67" harmonicMeanSpeed="12.67" length="5.00" nVehEntered="1"/>
    <interval begin="300.00" end="600.00" id="TLSnode2_1_InductLoopOn_3_2_1" nVehContrib="4" flow="48.00" occupancy="0.71" speed="10.62" harmonicMeanSpeed="9.35" length="5.00" nVehEntered="4"/>
    <interval begin="300.00" end="600.00" id="TLSnode2_1_InductLoopOn_3_2_2" nVehContrib="6" flow="72.00" occupancy="5.60" speed="9.29" harmonicMeanSpeed="1.78" length="5.00" nVehEntered="6"/>
    <interval begin="300.00" end="600.00" id="TLSnode2_1_InductLoopOn_5_2_0" nVehContrib="12" flow="144.00" occupancy="1.47" speed="12.95" harmonicMeanSpeed="12.85" length="5.00" nVehEntered="11"/>
    <interval begin="300.00" end="600.00" id="TLSnode2_1_InductLoopOn_5_2_1" nVehContrib="3" flow="36.00" occupancy="0.39" speed="12.80" harmonicMeanSpeed="12.76" length="5.00" nVehEntered="3"/>
    <interval begin="300.00" end="600.00" id="TLSnode2_1_InductLoopOn_5_2_2" nVehContrib="6" flow="72.00" occupancy="0.85" speed="11.89" harmonicMeanSpeed="11.81" length="5.00" nVehEntered="6"/>
    <interval begin="300.00" end="600.00" id="TLSnode2_1_InductLoopOn_1_2_0" nVehContrib="2" flow="24.00" occupancy="0.25" speed="13.55" harmonicMeanSpeed="13.46" length="5.00" nVehEntered="2"/>
    <interval begin="300.00" end="600.00" id="TLSnode2_1_InductLoopOn_1_2_1" nVehContrib="1" flow="12.00" occupancy="0.13" speed="13.11" harmonicMeanSpeed="13.11" length="5.00" nVehEntered="1"/>
    <interval begin="300.00" end="600.00" id="TLSnode2_1_InductLoopOn_1_2_2" nVehContrib="0" flow="0.00" occupancy="0.00" speed="-1.00" harmonicMeanSpeed="-1.00" length="-1.00" nVehEntered="0"/>
    <interval begin="300.00" end="600.00" id="TLSnode3_1_InductLoopOn_E1_3_0" nVehContrib="0" flow="0.00" occupancy="0.00" speed="-1.00" harmonicMeanSpeed="-1.00" length="-1.00" nVehEntered="0"/>
    <interval begin="300.00" end="600.00" id="TLSnode3_1_InductLoopOn_E1_3_1" nVehContrib="1" flow="12.00" occupancy="0.13" speed="12.49" harmonicMeanSpeed="12.49" length="5.00" nVehEntered="1"/>
    <interval begin="300.00" end="600.00" id="TLSnode3_1_InductLoopOn_E1_3_2" nVehContrib="0" flow="0.00" occupancy="0.00" speed="-1.00" harmonicMeanSpeed="-1.00" length="-1.00" nVehEntered="0"/>
    <interval begin="300.00" end="600.00" id="TLSnode3_1_InductLoopOn_6_3_0" nVehContrib="3" flow="36.00" occupancy="0.46" speed="10.87" harmonicMeanSpeed="10.84" length="5.00" nVehEntered="3"/>
    <interval begin="300.00" end="600.00" id="TLSnode3_1_InductLoopOn_6_3_1" nVehContrib="2" flow="24.00" occupancy="0.23" speed="14.67" harmonicMeanSpeed="14.65" length="5.00" nVehEntered="2"/>
    <interval begin="300.00" end="600.00" id="TLSnode3_1_InductLoopOn_6_3_2" nVehContrib="5" flow="60.00" occupancy="0.64" speed="13.15" harmonicMeanSpeed="13.10" length="5.00" nVehEntered="5"/>
    <interval begin="300.00" end="600.00" id="TLSnode3_1_InductLoopOn_2_3_0" nVehContrib="6" flow="72.00" occupancy="0.73" speed="13.75" harmonicMeanSpeed="13.61" length="5.00" nVehEntered="6"/>
    <interval begin="300.00" end="600.00" id="TLSnode3_1_InductLoopOn_2_3_1" nVehContrib="1" flow="12.00" occupancy="0.13" speed="13.09" harmonicMeanSpeed="13.09" length="5.00" nVehEntered="1"/>
    <interval begin="300.00" end="600.00" id="TLSnode3_1_InductLoopOn_2_3_2" nVehContrib="11" flow="132.00" occupancy="1.54" speed="12.08" harmonicMeanSpeed="11.90" length="5.00" nVehEntered="11"/>
    <interval begin="300.00" end="600.00" id="TLSnode3_1_InductLoopOn_N3_3_0" nVehContrib="1" flow="12.00" occupancy="0.12" speed="14.44" harmonicMeanSpeed="14.44" length="5.00" nVehEntered="1"/>
    <interval begin="300.00" end="600.00" id="TLSnode3_1_InductLoopOn_N3_3_1" nVehContrib="0" flow="0.00" occupancy="0.00" speed="-1.00" harmonicMeanSpeed="-1.00" length="-1.00" nVehEntered="0"/>
    <interval begin="300.00" end="600.00" id="TLSnode3_1_InductLoopOn_N3_3_2" nVehContrib="0" flow="0.00" occupancy="0.00" speed="-1.00" harmonicMeanSpeed="-1.00" length="-1.00" nVehEntered="0"/>
    <interval begin="300.00" end="600.00" id="TLSnode4_1_InductLoopOn_5_4_0" nVehContrib="7" flow="84.00" occupancy="0.92" speed="12.76" harmonicMeanSpeed="12.65" length="5.00" nVehEntered="7"/>
    <interval begin="300.00" end="600.00" id="TLSnode4_1_InductLoopOn_5_4_1" nVehContrib="0" flow="0.00" occupancy="0.00" speed="-1.00" harmonicMeanSpeed="-1.00" length="-1.00" nVehEntered="0"/>
    <interval begin="300.00" end="600.00" id="TLSnode4_1_InductLoopOn_5_4_2" nVehContrib="4" flow="48.00" occupancy="0.54" speed="12.49" harmonicMeanSpeed="12.41" length="5.00" nVehEntered="4"/>
    <interval begin="300.00" end="600.00" id="TLSnode4_1_InductLoopOn_7_4_0" nVehContrib="5" flow="60.00" occupancy="0.63" speed="13.53" harmonicMeanSpeed="13.26" length="5.00" nVehEntered="5"/>