<?xml version="1.0" encoding="UTF-8"?>

<!-- generated on 2025-09-15 13:56:17 by Eclipse SUMO sumo Version 1.24.0
<sumoConfiguration xmlns:xsi="http://www.w3.org/2001/XMLSchema-instance" xsi:noNamespaceSchemaLocation="http://sumo.dlr.de/xsd/sumoConfiguration.xsd">

    <input>
        <net-file value="Documents/route_TSC/res/hangzhou/SUMO_roadnet_4_4_actuated.net.xml"/>
        <route-files value="Documents/route_TSC/res/hangzhou/SUMO_anon_4_4_hangzhou_real.rou.xml"/>
    </input>

    <output>
        <queue-output value="./queues.xml"/>
        <queue-output.period value="3.0"/>
        <tripinfo-output value="./tripinfos.xml"/>
    </output>

    <time>
        <begin value="0"/>
        <end value="3600"/>
    </time>

    <processing>
        <threads value="10"/>
    </processing>

    <routing>
        <routing-algorithm value="astar"/>
    </routing>

    <report>
        <duration-log.statistics value="true"/>
    </report>

    <emissions>
        <device.emissions.probability value="1.0"/>
    </emissions>

    <traci_server>
        <remote-port value="56273"/>
    </traci_server>

    <random_number>
        <seed value="1"/>
    </random_number>

</sumoConfiguration>
-->

<detector xmlns:xsi="http://www.w3.org/2001/XMLSchema-instance" xsi:noNamespaceSchemaLocation="http://sumo.dlr.de/xsd/det_e1_file.xsd">
</detector>
